14
Lattice="6.15498816 -0.16758372 1.08132828 -1.93309561 6.87370265 2.98249436 0.06669991 -0.36496583 6.03572349" Properties=species:S:1:pos:R:3:forces:R:3:magmoms:R:1 energy=-50.49839999 stress="0.0012916219742157408 0.00016511366260475645 0.00042487257095294646 0.0001651137187783386 0.0011490302854879856 5.943993237927043e-05 0.0004248727145076564 5.944016331510808e-05 0.0011140269473591362" bandgap=0.0 e_per_atom_relaxed=-3.605472843571429 mp_id=mp-1075232 energy_per_atom=-3.5664571421428573 ef_per_atom_relaxed=-3.605472843571429 corrected_total_energy=-49.930399990000005 ef_per_atom=0.21700719642857144 task_id=mp-1075232 calc_id=0 ionic_step=2 pbc="T T T"
Mg       0.01795479       3.59324962       7.72604417      -0.00677030       0.04015651      -0.06072131       0.00000000
Mg       1.92160871       1.79487965       3.68023891       0.05600900       0.00358325       0.04855216       0.00000000
Mg       5.24643529       0.81984728       3.39803423       0.00750423       0.04397721       0.02735183       0.00000000
Mg       1.23781114       6.67226913       4.64420349       0.00669283      -0.00173119       0.02078065       0.00000000
Mg       2.67071280       4.20798985       6.22561502      -0.00286548       0.00577829      -0.01480779       0.00000000
Mg       2.98586287       4.72785809       3.15723793      -0.00480723       0.00286350       0.01597225       0.00000000
Si       4.66155747       2.41450753       5.58709561      -0.00381861      -0.01144674       0.07504600      -0.00000000
Si       1.38713324       0.78169462       6.31640913      -0.02479654      -0.08727863      -0.03726824      -0.00000000
Si       1.09464474       6.24787873       7.59038598      -0.02802547      -0.01738979      -0.02554469      -0.00000000
Si      -1.15453765       5.99980670       6.53517665       0.00037401       0.03234398      -0.02581370      -0.00000000
Si       5.46950452       0.21885722       6.18797541       0.00743610       0.00789814       0.01431075      -0.00000000
Si      -1.23952391       5.67307019       4.03381302       0.00048367      -0.01626053       0.01513780      -0.00000000
Si       3.86545089       2.16069187       7.85050039       0.01816102       0.01544247       0.00751748      -0.00000000
Si       0.48943212       3.97963153       4.52418108      -0.02557722      -0.01793648      -0.06051318      -0.00000000
14
Lattice="6.14700269 -0.17043161 1.07843437 -1.93455979 6.87726884 2.97957177 0.06564208 -0.3639112 6.02622364" Properties=species:S:1:pos:R:3:forces:R:3 energy=-50.49697534 stress="0.00023585419678094958 -0.00023024068333727619 0.00010323776283629068 -0.00023024036502031076 0.0011148118420977525 0.00015634685136955908 0.00010323794384005532 0.0001563467140563583 -3.0991732968370625e-05" e_per_atom_relaxed=-3.605472843571429 mp_id=mp-1075232 energy_per_atom=-3.5663553814285716 ef_per_atom_relaxed=-3.605472843571429 corrected_total_energy=-49.92897534 ef_per_atom=0.21710895714285744 task_id=mp-1075232 calc_id=0 ionic_step=1 pbc="T T T"
Mg       0.01560155       3.59402879       7.71877749      -0.00768818       0.04200259      -0.06515170
Mg       1.91450446       1.79589193       3.67210065       0.06099087      -0.00272289       0.04928496
Mg       5.23714801       0.81568890       3.38948847       0.01690282       0.04334177       0.03783289
Mg       1.23209339       6.67401761       4.63644307      -0.00056373       0.00097719       0.02014026
Mg       2.66389852       4.20942121       6.21499511       0.00263038       0.00358420      -0.00348541
Mg       2.97728072       4.72778936       3.15350533       0.00651116       0.00429423       0.00582289
Si       4.65450210       2.41408843       5.57723208      -0.01350645      -0.00557459       0.04524814
Si       1.38307992       0.78754582       6.30587839      -0.00437356      -0.09727793      -0.01161399
Si       1.08863079       6.25159946       7.58072580      -0.01147235      -0.01868107      -0.02479473
Si      -1.15281557       6.00064176       6.52433171      -0.04474793       0.04698595       0.00869031
Si       5.46022550       0.21967819       6.17927473       0.01580143      -0.01896475      -0.01319785
Si      -1.24072076       5.67603328       4.03134887      -0.00708149      -0.00606843      -0.01711234
Si       3.85810819       2.15926560       7.83584298       0.00817213       0.02654249       0.02702681
Si       0.48701304       3.98240712       4.52043870      -0.02157513      -0.01843875      -0.05869025
14
Lattice="6.13864266 -0.17341308 1.07540472 -1.93609264 6.8810023 2.9765121 0.06453464 -0.3628071 6.0162782" Properties=species:S:1:pos:R:3:forces:R:3 energy=-50.49349257 stress="-0.0015028940559609994 -0.000575230669350184 -0.0002248305806760153 -0.0005752307879388575 0.000345491809588138 0.00023264544942235124 -0.00022483055570997882 0.00023264550559593339 -0.0018359137949043776" e_per_atom_relaxed=-3.605472843571429 mp_id=mp-1075232 energy_per_atom=-3.5661066121428573 ef_per_atom_relaxed=-3.605472843571429 corrected_total_energy=-49.92549257 ef_per_atom=0.2173577264285716 task_id=mp-1075232 calc_id=0 ionic_step=0 pbc="T T T"
Mg       0.01313689       3.59484435       7.71116279      -0.01957555       0.03911973      -0.08847016
Mg       1.90707132       1.79695299       3.66358537       0.06660918      -0.01506471       0.05178702
Mg       5.22742889       0.81133489       3.38054555       0.03335551       0.05437090       0.05223280
Mg       1.22610804       6.67584764       4.62832114      -0.00031979       0.01161563       0.03474501
Mg       2.65676492       4.21091954       6.20387913       0.00338873      -0.00571572       0.02674911
Mg       2.96829869       4.72771836       3.14959648       0.04019732       0.01363662      -0.01791745
Si       4.64711432       2.41364902       5.56690696      -0.02486574      -0.00094130       0.01600053
Si       1.37883488       0.79367329       6.29485587       0.01506646      -0.10956158       0.01233045
Si       1.08233412       6.25549536       7.57061088       0.00239023      -0.01972457      -0.02498870
Si      -1.15101680       6.00151253       6.51298003      -0.09614661       0.06066261       0.04468472
Si       5.45051101       0.22053934       6.17016335       0.02182906      -0.04791972      -0.04235058
Si      -1.24197518       5.67913547       4.02876494      -0.01662427       0.00254539      -0.05356550
Si       3.85042224       2.15777141       7.82050112      -0.00323927       0.03747040       0.04562070
Si       0.48447819       3.98531326       4.51651644      -0.02206525      -0.02049370      -0.05685793
14
Lattice="6.13045223 -0.16539665 1.07134713 -1.92752025 6.86224643 2.9793628 0.0627057 -0.3537088 6.00228943" Properties=species:S:1:pos:R:3:forces:R:3 energy=-50.51059739 stress="-0.003766238061186419 -0.00027036122258712717 -0.0005182005774029081 -0.0002703610415833625 -0.002696314665884307 0.0006819945540426151 -0.0005182004151236708 0.0006819941171369763 -0.004002423089158586" e_per_atom_relaxed=-3.605472843571429 mp_id=mp-1075232 energy_per_atom=-3.567328385 ef_per_atom_relaxed=-3.605472843571429 corrected_total_energy=-49.94259739 ef_per_atom=0.21613595357142873 task_id=mp-1075232 calc_id=1 ionic_step=37 pbc="T T T"
Mg      -0.04802575       3.94318517       1.70481832      -0.00560323       0.03181113      -0.06901100
Mg       1.89635838       1.80514235       3.65640814       0.05069244      -0.00670381       0.04710227
Mg       5.22088272       0.81309901       3.36937031       0.03009913       0.02233055       0.04572903
Mg       1.22950289       6.66261553       4.62184061       0.00218837       0.01012711       0.04010818
Mg       2.65784653       4.20770864       6.19424492      -0.00056362      -0.01261621       0.01133927
Mg       2.97159471       4.71806662       3.14284420       0.03705167       0.01860233       0.00119431
Si       4.64378983       2.42088236       5.55191210      -0.05339364       0.00302962      -0.00720008
Si       1.37690831       0.80668363       6.28107478       0.02559646      -0.07753600       0.02735716
Si       1.08743323       6.25291750       7.56492038       0.01615972      -0.03617723      -0.02289468
Si      -1.14271320       5.98506051       6.51221464      -0.08279792       0.05222235       0.01455988
Si       5.44609364       0.23231059       6.15339917      -0.00256594      -0.04262244      -0.02394068
Si      -1.23751405       5.66648632       4.02372650      -0.02641884       0.01842892      -0.04921410
Si       3.84405001       2.16486842       7.80379955       0.00411753       0.02880372       0.02977327
Si       0.48550778       3.98061872       4.52083383       0.00543787      -0.00970006      -0.04490283
14
Lattice="6.14921534 -0.14522042 1.07393587 -1.91307374 6.8430187 2.99640392 0.06363287 -0.33992205 6.00805296" Properties=species:S:1:pos:R:3:forces:R:3 energy=-50.49970857 stress="-0.0013166574100592443 0.0013403456910560357 -7.83234684434112e-05 0.0013403459469579098 -0.0036590518884695483 0.0013143486633505619 -7.832336233775607e-05 0.0013143487070411256 -0.0013289750033531383" e_per_atom_relaxed=-3.605472843571429 mp_id=mp-1075232 energy_per_atom=-3.5665506121428576 ef_per_atom_relaxed=-3.605472843571429 corrected_total_energy=-49.931708570000005 ef_per_atom=0.21691372642857146 task_id=mp-1075232 calc_id=1 ionic_step=36 pbc="T T T"
Mg      -0.03747698       3.92655825       1.72937193       0.00317679       0.06041360      -0.10036477
Mg       1.89056059       1.82903482       3.66670505       0.11546717      -0.10926231      -0.00444599
Mg       5.24307466       0.82151224       3.37191712      -0.00527003       0.02040167       0.02773810
Mg       1.25236728       6.65631874       4.63351258       0.00907369       0.00501233       0.05050653
Mg       2.68391115       4.21169401       6.20992989      -0.04602702       0.03843905       0.00813054
Mg       3.00589792       4.71502722       3.14441165      -0.00103623       0.04128589       0.06836973
Si       4.66541282       2.44518401       5.55251021      -0.02443599      -0.04659629       0.05888168
Si       1.38871759       0.82842667       6.29142850      -0.04319649      -0.06170186      -0.00239858
Si       1.11711545       6.26313303       7.59243564      -0.03237013      -0.05514328      -0.03496453
Si      -1.12881419       5.96862268       6.54644989       0.04189505       0.04104978      -0.09267961
Si       5.47404645       0.25359510       6.15525821      -0.04760969       0.04266607       0.05182567
Si      -1.23073630       5.65750610       4.02607584       0.02430350       0.02119839       0.05659173
Si       3.86028081       2.18715144       7.81781518       0.04054596      -0.01566555      -0.03875952
Si       0.49708529       3.98118279       4.55273280      -0.03451658       0.01790250      -0.04843097
14
Lattice="6.15582846 -0.13810924 1.07484828 -1.90798202 6.83624182 3.00241012 0.06395965 -0.33506286 6.01008434" Properties=species:S:1:pos:R:3:forces:R:3 energy=-50.49191336 stress="0.0017646473948598014 0.0016239494861064946 5.4638576586075225e-05 0.0016239491740310382 -0.0012592436088554365 0.0013290182570113807 5.4638320684201064e-05 0.0013290180947321437 0.001847545733454757" e_per_atom_relaxed=-3.605472843571429 mp_id=mp-1075232 energy_per_atom=-3.565993811428571 ef_per_atom_relaxed=-3.605472843571429 corrected_total_energy=-49.92391336 ef_per_atom=0.2174705271428575 task_id=mp-1075232 calc_id=1 ionic_step=35 pbc="T T T"
Mg      -0.03376729       3.92071660       1.73802502       0.00712190       0.06692202      -0.10606638
Mg       1.88851415       1.83742279       3.67034512       0.13530621      -0.14693834      -0.01475038
Mg       5.25088769       0.82448864       3.37280517      -0.01517167       0.03474716       0.01932014
Mg       1.26042373       6.65409263       4.63762332       0.02391896       0.00605557       0.07848150
Mg       2.69309780       4.21310675       6.21545510      -0.07517486       0.04534943       0.00421570
Mg       3.01799424       4.71396199       3.14495713      -0.04568776       0.06481522       0.10697885
Si       4.67303793       2.45373249       5.55272118      -0.01116011      -0.06733895       0.07525437
Si       1.39289072       0.83608739       6.29508375      -0.06120169      -0.06030349      -0.01646637
Si       1.12759395       6.26673452       7.60214339      -0.04536682      -0.06199083      -0.04275080
Si      -1.12392499       5.96284838       6.55851481       0.09023638       0.03189667      -0.13292994
Si       5.48390078       0.26110720       6.15590695      -0.06175279       0.07308235       0.07289378
Si      -1.22835344       5.65432158       4.02690001       0.04679790       0.02144386       0.08175167
Si       3.86599828       2.19499973       7.82275559       0.05804073      -0.03435926      -0.06955382
Si       0.50116625       3.98139139       4.56398343      -0.04590638       0.02661859      -0.05637832
14
Lattice="6.15685377 -0.1373255 1.0728076 -1.90608581 6.82446902 2.98750195 0.06608833 -0.3364557 5.9861202" Properties=species:S:1:pos:R:3:forces:R:3 energy=-50.48108085 stress="-0.00019968473877758386 0.0011086602481523366 -0.00019921474689889573 0.001108660323050446 -0.0027549628690724686 0.0011169133332544008 -0.0001992144597894759 0.0011169130149374354 -0.0006879841995507417" e_per_atom_relaxed=-3.605472843571429 mp_id=mp-1075232 energy_per_atom=-3.5652200607142857 ef_per_atom_relaxed=-3.605472843571429 corrected_total_energy=-49.91308085 ef_per_atom=0.21824427785714323 task_id=mp-1075232 calc_id=1 ionic_step=34 pbc="T T T"
Mg      -0.03326414       3.90948197       1.73882233       0.01890908       0.05793308      -0.10234278
Mg       1.87996297       1.83853195       3.65698546       0.15035045      -0.12738940      -0.04166830
Mg       5.25547512       0.80750552       3.35600819      -0.01030141       0.06639763       0.02491568
Mg       1.26512873       6.64348760       4.61663561      -0.00022801       0.00076125       0.05801808
Mg       2.69066501       4.20482467       6.18976323      -0.05536773       0.05225534       0.00235566
Mg       3.03291628       4.70937231       3.12673735      -0.09581854       0.02660196       0.12321355
Si       4.67153865       2.44938730       5.52192317       0.00595958      -0.08441657       0.01037329
Si       1.39110708       0.83577254       6.26998861       0.00399414      -0.00806475       0.02980351
Si       1.13554215       6.26209379       7.57389237      -0.03009796      -0.07373541      -0.02764499
Si      -1.10744379       5.93885492       6.53512177       0.05275183       0.04369640      -0.15635944
Si       5.49254444       0.26020098       6.13291890      -0.11631231       0.09148626       0.04467306
Si      -1.23079057       5.65309135       3.99694084       0.07054890      -0.01836008       0.11465783
Si       3.87212279       2.18601970       7.77942302       0.02784915      -0.04204568       0.02676131
Si       0.49020210       3.98120401       4.57049684      -0.02223716       0.01487998      -0.10675644
14
Lattice="6.15779959 -0.13660252 1.07092515 -1.90433663 6.813609 2.97374966 0.06805196 -0.33774054 5.96401407" Properties=species:S:1:pos:R:3:forces:R:3 energy=-50.46362614 stress="-0.0051806540816052345 0.0005793355538645494 -0.0004088168754284696 0.0005793353229287117 -0.0072272274789643475 0.0009163738322850454 -0.0004088172811265628 0.0009163732018926239 -0.006238271867310973" e_per_atom_relaxed=-3.605472843571429 mp_id=mp-1075232 energy_per_atom=-3.563973295714286 ef_per_atom_relaxed=-3.605472843571429 corrected_total_energy=-49.895626140000005 ef_per_atom=0.2194910428571429 task_id=mp-1075232 calc_id=1 ionic_step=33 pbc="T T T"
Mg      -0.03279772       3.89912221       1.73952541       0.03052423       0.05385256      -0.10946671
Mg       1.87207481       1.83954653       3.64465205       0.16631511      -0.11106705      -0.06638633
Mg       5.25970338       0.79186301       3.34053733      -0.00752266       0.10722874       0.03387179
Mg       1.26946907       6.63370399       4.59727824      -0.02371399      -0.00555913       0.04094550
Mg       2.68842011       4.19718437       6.16606305      -0.03225144       0.05775707      -0.00022757
Mg       3.04668131       4.70513718       3.10995273      -0.15425123      -0.01318422       0.14293095
Si       4.67015211       2.44538049       5.49354652       0.02753774      -0.10035995      -0.05159731
Si       1.38946171       0.83547759       6.24683730       0.06814772       0.03861387       0.07086287
Si       1.14287676       6.25780199       7.54781682      -0.01865542      -0.08442650      -0.01305146
Si      -1.09223906       5.91673984       6.51353128       0.02070281       0.05381702      -0.18207435
Si       5.50051851       0.25936494       6.11171567      -0.16687700       0.10804460       0.01961819
Si      -1.23304183       5.65194658       3.96934323       0.09721854      -0.05911302       0.14855303
Si       3.87776799       2.17774522       7.73949916       0.00234521      -0.05400712       0.11532044
Si       0.48009639       3.98101126       4.57640249      -0.00951963       0.00840312      -0.14929906
14
Lattice="6.1757239 -0.13872854 1.07378352 -1.90905855 6.82685585 2.96512767 0.07170216 -0.34324167 5.96005163" Properties=species:S:1:pos:R:3:forces:R:3 energy=-50.45767782 stress="-0.003319498050935484 -4.023663756110153e-05 -0.0004554082805400527 -4.0236387900736494e-05 -0.004598876100389544 0.0004174515039833991 -0.00045540816819288846 0.0004174515539154721 -0.005586422591493603" e_per_atom_relaxed=-3.605472843571429 mp_id=mp-1075232 energy_per_atom=-3.563548415714286 ef_per_atom_relaxed=-3.605472843571429 corrected_total_energy=-49.88967782 ef_per_atom=0.21991592285714304 task_id=mp-1075232 calc_id=1 ionic_step=32 pbc="T T T"
Mg      -0.03233034       3.90350631       1.74088237       0.02155625       0.05221152      -0.09503066
Mg       1.87373152       1.84205796       3.64099628       0.15511936      -0.08571266      -0.06364585
Mg       5.27866706       0.77814187       3.33668514      -0.01923137       0.10418003       0.01991862
Mg       1.27580448       6.64551853       4.58990247      -0.04747388       0.00081877       0.01670452
Mg       2.69244695       4.20273636       6.15945454       0.00267273       0.04837401       0.00104180
Mg       3.06436373       4.71554047       3.10471544      -0.13579008      -0.03654479       0.11782093
Si       4.68253009       2.44342937       5.47964410       0.04694690      -0.08888929      -0.04562619
Si       1.39450256       0.83599053       6.24441778       0.08250021       0.02533035       0.08104876
Si       1.15293791       6.27040063       7.54146361      -0.02901412      -0.07929591      -0.00919148
Si      -1.07888345       5.91430008       6.50346766      -0.03601775       0.08755461      -0.15508745
Si       5.52033492       0.25793593       6.11063113      -0.14059128       0.09652477      -0.00424075
Si      -1.23686114       5.66875482       3.95422930       0.11998528      -0.07410391       0.17043052
Si       3.89530207       2.17075841       7.72534070      -0.00865157      -0.03484751       0.16234458
Si       0.47020070       3.99365037       4.59131647      -0.01201068      -0.01559998      -0.19648737
14
Lattice="6.20498948 -0.14219976 1.07845047 -1.91676817 6.84848439 2.95105027 0.07766196 -0.35222352 5.95358203" Properties=species:S:1:pos:R:3:forces:R:3 energy=-50.43250546 stress="0.0039431482197296586 -0.0008818913730587873 -0.00038388533574587537 -0.0008818913793002965 0.0038404655018169143 -0.00039701478085630047 -0.0003838850985685286 -0.00039701457488649936 -7.75169219096372e-05" e_per_atom_relaxed=-3.605472843571429 mp_id=mp-1075232 energy_per_atom=-3.5617503900000003 ef_per_atom_relaxed=-3.605472843571429 corrected_total_energy=-49.864505460000004 ef_per_atom=0.22171394857142868 task_id=mp-1075232 calc_id=1 ionic_step=31 pbc="T T T"
Mg      -0.03156032       3.91064587       1.74309514       0.01426408       0.03423516      -0.03533203
Mg       1.87641079       1.84616646       3.63502108       0.13833678      -0.05517599      -0.09679524
Mg       5.30964016       0.75569925       3.33041781       0.05819982       0.10675013       0.02842608
Mg       1.28615420       6.66481032       4.57785943      -0.12819538       0.00125376      -0.03122670
Mg       2.69899173       4.21180874       6.14865737       0.02150301       0.05693113      -0.00510021
Mg       3.09326971       4.73253562       3.09616939      -0.14630584      -0.05746894       0.11495646
Si       4.70271479       2.44024972       5.45695751       0.08672562      -0.07123526      -0.04845584
Si       1.40272321       0.83684001       6.24045805       0.10767270       0.00826539       0.09242833
Si       1.16938314       6.29098281       7.53108373      -0.04088030      -0.07247383      -0.00781195
Si      -1.05701228       5.91027389       6.48706318      -0.11786330       0.13218032      -0.12920972
Si       5.55269340       0.25561555       6.10885590      -0.10645801       0.07814605      -0.03985434
Si      -1.24311336       5.69623367       3.92954987       0.16447533      -0.10401384       0.19758176
Si       3.92393508       2.15934328       7.70224340      -0.02137263      -0.00881197       0.23176386
Si       0.45400098       4.01428991       4.61562047      -0.03010187      -0.04858211      -0.27137046
14
Lattice="6.20693477 -0.13448381 1.09267546 -1.89873356 6.83002819 2.92931861 0.09268789 -0.36082716 5.94214313" Properties=species:S:1:pos:R:3:forces:R:3 energy=-50.40717328 stress="0.0026002421243169847 0.00021487601025416237 -0.00039811567071894197 0.00021487592911454372 0.0014493653445276887 -0.0004653900577001854 -0.00039811599527741657 -0.00046539017004734967 -0.0010575215229104908" e_per_atom_relaxed=-3.605472843571429 mp_id=mp-1075232 energy_per_atom=-3.5599409485714286 ef_per_atom_relaxed=-3.605472843571429 corrected_total_energy=-49.839173280000004 ef_per_atom=0.22352339000000007 task_id=mp-1075232 calc_id=1 ionic_step=30 pbc="T T T"
Mg      -0.01893531       3.89638855       1.74686575      -0.00121105       0.02402072      -0.03065965
Mg       1.88839801       1.83849087       3.61582865       0.06267681      -0.01081954      -0.00653622
Mg       5.33345453       0.73261676       3.32778407       0.00526265       0.11516557       0.00405359
Mg       1.29600100       6.65136369       4.55907980      -0.00986201      -0.01903881       0.00336688
Mg       2.70371230       4.21080848       6.13468570       0.12080045      -0.02615146       0.00722798
Mg       3.11550606       4.72636128       3.10128587      -0.11503156      -0.03682154       0.04137240
Si       4.71971641       2.41880715       5.41506921      -0.06981146       0.11272719       0.08001336
Si       1.42600412       0.84070714       6.24722346       0.00251549       0.03706044      -0.03749824
Si       1.20426499       6.27673107       7.51843306      -0.03182152      -0.05846932       0.00025790
Si      -1.00302098       5.87165220       6.44588757      -0.22000429       0.14461232       0.03982216
Si       5.55841159       0.27488634       6.10673272       0.07845569      -0.10703130       0.04042818
Si      -1.20977173       5.68851436       3.91123940       0.00406425      -0.07073571       0.04440172
Si       3.95224213       2.13261080       7.69306952       0.01042925       0.07867600       0.05875907
Si       0.42707913       4.01847719       4.63387021       0.16353731      -0.18319456      -0.24500915
14
Lattice="6.20805628 -0.13003536 1.10087654 -1.88833612 6.81938769 2.91678973 0.10135074 -0.36578738 5.9355483" Properties=species:S:1:pos:R:3:forces:R:3 energy=-50.37443864 stress="0.0012522379517672711 0.0009262636532912264 -0.0004194366783759775 0.0009262632600761516 -0.0003843677170201784 -0.0004540895994579726 -0.0004194361665722292 -0.0004540897742202281 -0.002184215956323609" e_per_atom_relaxed=-3.605472843571429 mp_id=mp-1075232 energy_per_atom=-3.55760276 ef_per_atom_relaxed=-3.605472843571429 corrected_total_energy=-49.80643864 ef_per_atom=0.22586157857142872 task_id=mp-1075232 calc_id=1 ionic_step=29 pbc="T T T"
Mg      -0.01164083       3.88816339       1.74903168      -0.01587837       0.01036775      -0.04598845
Mg       1.89528665       1.83407975       3.60478162       0.01302956       0.00742257       0.03854720
Mg       5.34714931       0.71935208       3.32631991      -0.01745782       0.13437181      -0.00918700
Mg       1.30167734       6.64360105       4.54823554       0.06206862      -0.03710630       0.01617973
Mg       2.70644194       4.21020812       6.12659647       0.20180523      -0.04073414       0.01491309
Mg       3.12834310       4.72279673       3.10423260      -0.10881804      -0.02201808       0.00593934
Si       4.72944552       2.40649495       5.39097997      -0.15170186       0.22923100       0.13768203
Si       1.43946285       0.84291406       6.25110073      -0.04857198       0.05627963      -0.10498109
Si       1.22439432       6.26850559       7.51113200      -0.02420385      -0.04906818       0.01129734
Si      -0.97193441       5.84944049       6.42222596      -0.27839512       0.13836232       0.13774840
Si       5.56172130       0.28597167       6.10547887       0.17409198      -0.22558773       0.10096717
Si      -1.19053942       5.68406590       3.90069418      -0.09796410      -0.04994403      -0.05292655
Si       3.96854646       2.11721957       7.68780445       0.02552492       0.12210086      -0.02899556
Si       0.41162517       4.02080724       4.64426948       0.26647085      -0.27367749      -0.22119564
14
Lattice="6.18070943 -0.13541111 1.15938909 -1.85640429 6.79972755 2.90303562 0.15131553 -0.37598797 5.96733036" Properties=species:S:1:pos:R:3:forces:R:3 energy=-50.3282282 stress="0.0007327317068288107 0.00041714039596101943 0.0031939748799010813 0.00041714037723649197 0.0015204922406017922 -0.0029363246279620163 0.003193975191976538 -0.002936324571788434 0.0028009863530271783" e_per_atom_relaxed=-3.605472843571429 mp_id=mp-1075232 energy_per_atom=-3.5543020142857142 ef_per_atom_relaxed=-3.605472843571429 corrected_total_energy=-49.7602282 ef_per_atom=0.22916232428571465 task_id=mp-1075232 calc_id=1 ionic_step=28 pbc="T T T"
Mg       0.00269311       3.86580973       1.77280846      -0.00472674       0.02418885      -0.05111696
Mg       1.91676503       1.81953438       3.61118871      -0.02433498      -0.02889178       0.12898219
Mg       5.37523303       0.68117036       3.36373897      -0.12314675       0.16835546       0.08980593
Mg       1.31481198       6.61637231       4.56834544       0.09282811      -0.01743379       0.08955296
Mg       2.74774058       4.20593494       6.17210894       0.08582479      -0.06354424       0.11514710
Mg       3.12459201       4.70326389       3.16621729      -0.09166297      -0.09857664      -0.13441908
Si       4.70655511       2.40639349       5.39103375      -0.07401442      -0.18141327       0.28738040
Si       1.48591264       0.87497588       6.31000290       0.02201461       0.06067789      -0.14765056
Si       1.28614382       6.24209154       7.57485192      -0.09499332      -0.01775418      -0.09457120
Si      -0.91502802       5.81637393       6.43095576      -0.12465545       0.05412068       0.17490776
Si       5.59933925       0.26626575       6.19944472      -0.01876687       0.09421799      -0.05240201
Si      -1.14220156       5.67562945       3.89126875      -0.11051036      -0.11003269      -0.11135022
Si       4.02897858       2.08419934       7.74869660       0.03706532       0.19490797      -0.16963234
Si       0.40150663       3.97669041       4.68997384       0.42907902      -0.07882226      -0.12463398
14
Lattice="6.16464588 -0.13856882 1.19375937 -1.83764753 6.78817918 2.89495645 0.18066486 -0.3819798 5.98599915" Properties=species:S:1:pos:R:3:forces:R:3 energy=-50.26622195 stress="-0.0011010020600095878 6.463600120958649e-05 0.004656330689855489 6.463602617562301e-05 -2.1714441184785515e-05 -0.003962808012283786 0.004656330483885688 -0.003962807937385676 0.0035914615126057896" e_per_atom_relaxed=-3.605472843571429 mp_id=mp-1075232 energy_per_atom=-3.549872996428572 ef_per_atom_relaxed=-3.605472843571429 corrected_total_energy=-49.698221950000004 ef_per_atom=0.2335913421428572 task_id=mp-1075232 calc_id=1 ionic_step=27 pbc="T T T"
Mg       0.01122073       3.85266848       1.78685954      -0.00016013       0.04450817      -0.10696470
Mg       1.92924807       1.81101948       3.61489874      -0.06277888      -0.03873182       0.22115284
Mg       5.39150794       0.65879340       3.38583860      -0.26863806       0.25172355       0.20703129
Mg       1.32256818       6.60038894       4.58008693       0.13552178      -0.00335804       0.11892160
Mg       2.77196113       4.20339910       6.19885982       0.01975654      -0.10551357       0.16412237
Mg       3.12256160       4.69176446       3.20266789      -0.05131095      -0.12847251      -0.25845279
Si       4.69292745       2.40639123       5.39066527      -0.02228928      -0.37889407       0.35598279
Si       1.51325474       0.89372882       6.34461227       0.07914015       0.05755877      -0.17585830
Si       1.32251577       6.22654105       7.61240127      -0.11786615      -0.00284695      -0.13988924
Si      -0.88162334       5.79696730       6.43607886      -0.04546790       0.01103587       0.18831018
Si       5.62145133       0.25467261       6.25478713      -0.11614125       0.22971335      -0.12275748
Si      -1.11389574       5.67066487       3.88575245      -0.10058432      -0.16995176      -0.14532209
Si       4.06436967       2.06482073       7.78455328       0.05544338       0.21376677      -0.25099705
Si       0.39585985       3.95079808       4.71670207       0.49537508       0.01946225      -0.05527942
14